 # B13 N2
 
          15  atoms
 2 atom types
 
      0.000000000000       5.212219670000  xlo xhi
      0.000000000000       4.667647507812  ylo yhi
      0.000000000000       4.440782997250  zlo zhi
      2.319547505689       2.319548748249       1.437489460503  xy xz yz
 
Masses

1 10.81
2 14.007
Atoms # atomic

1 1 4.458517505863 1.201338326940 0.873835074284
2 1 3.059957397932 1.896341481262 3.020882600926
3 1 3.059956797174 3.458071214607 0.873835074284
4 1 6.791359126765 2.647065753708 3.566947922966
5 1 5.392798418075 4.903798641375 3.566947922966
6 1 6.791358526007 4.208795487053 1.419900396324
7 1 8.105377793857 6.077163230726 4.420435329556
8 1 9.049285242334 5.608096044870 2.971363429724
9 1 9.049285647794 4.554063172452 4.420435329556
10 1 0.802030276145 1.551073795863 0.020347667693
11 1 1.745938130081 0.027973737589 0.020347667693
12 1 0.802030681605 0.497040923446 1.469419567526
13 1 4.925657961969 3.052568484158 2.220391498625
14 2 6.059987734031 3.755544480374 2.731725456843
15 2 3.791328189907 2.349592487941 1.709057540406

