 # B2 N2
 
           4  atoms
 2 atom types
 
      0.000000000000       2.553939200000  xlo xhi
      0.000000000000       2.211776686708  ylo yhi
      0.000000000000       4.226855000000  zlo zhi
     -1.276968803625       0.000000000000       0.000000000000  xy xz yz
 
Masses

1 10.81
2 14.007
Atoms # atomic

1 1 -0.000000746052 1.474518528398 2.112260888020
2 1 1.276971142428 0.737258158311 4.225688388020
3 2 -0.000000746052 1.474518528398 0.529523486980
4 2 1.276971142428 0.737258158311 2.642950986980

